
#(C) 2024 by FIZ Karlsruhe - Leibniz Institute for Information Infrastructure.  All rights reserved.
data_59159-ICSD
_database_code_ICSD 59159
_audit_creation_date 1987-03-16
_audit_update_record 2015-02-01
_chemical_name_common 'Potassium manganese oxide (1.33/8/16)'
_chemical_formula_structural 'K1.33 Mn8 O16'
_chemical_formula_sum 'K1.33 Mn8 O16'
_chemical_name_structure_type Hollandite(tet)-frame#Ba1.15(Cr2.3Ti5.7)O16
_exptl_crystal_density_diffrn 4.44
_citation_title

;
The structure of K1.33 Mn8 O16 and cation ordering in hollandite-type
structures
;
loop_
_citation_id
_citation_journal_full
_citation_year
_citation_journal_volume
_citation_page_first
_citation_page_last
_citation_journal_id_ASTM
primary 'Acta Crystallographica, Section B: Structural Science' 1986 42 162 167
ASBSDK
loop_
_citation_author_citation_id
_citation_author_name
primary 'Vicat, J.'
primary 'Fanchon, E.'
primary 'Strobel, P.'
primary 'Duc Tran Qui'
_cell_length_a 9.866(3)
_cell_length_b 9.866(3)
_cell_length_c 2.872(1)
_cell_angle_alpha 90.
_cell_angle_beta 90.
_cell_angle_gamma 90.
_cell_volume 279.55
_cell_formula_units_Z 1
_space_group_name_H-M_alt 'I 4/m'
_space_group_IT_number 87
loop_
_space_group_symop_id
_space_group_symop_operation_xyz
1 '-y, x, -z'
2 'y, -x, -z'
3 'x, y, -z'
4 '-x, -y, -z'
5 'y, -x, z'
6 '-y, x, z'
7 '-x, -y, z'
8 'x, y, z'
9 '-y+1/2, x+1/2, -z+1/2'
10 'y+1/2, -x+1/2, -z+1/2'
11 'x+1/2, y+1/2, -z+1/2'
12 '-x+1/2, -y+1/2, -z+1/2'
13 'y+1/2, -x+1/2, z+1/2'
14 '-y+1/2, x+1/2, z+1/2'
15 '-x+1/2, -y+1/2, z+1/2'
16 'x+1/2, y+1/2, z+1/2'
loop_
_atom_type_symbol
_atom_type_oxidation_number
K1+ 1
Mn4+ 3.837
O2- -2
loop_
_atom_site_label
_atom_site_type_symbol
_atom_site_symmetry_multiplicity
_atom_site_Wyckoff_symbol
_atom_site_fract_x
_atom_site_fract_y
_atom_site_fract_z
_atom_site_B_iso_or_equiv
_atom_site_occupancy
K1 K1+ 4 e 0 0 0.3754(12) . 0.3333
Mn1 Mn4+ 8 h 0.34891(3) 0.16621(2) 0 . 1.
O1 O2- 8 h 0.15445(17) 0.20295(17) 0 . 1.
O2 O2- 8 h 0.54206(17) 0.16496(18) 0 . 1.
loop_
_atom_site_aniso_label
_atom_site_aniso_type_symbol
_atom_site_aniso_beta_11
_atom_site_aniso_beta_22
_atom_site_aniso_beta_33
_atom_site_aniso_beta_12
_atom_site_aniso_beta_13
_atom_site_aniso_beta_23
K1 K1+ 0.0232(17) 0.0232(17) 0.821(36) 0 0 0
Mn1 Mn4+ 0.0096(2) 0.0106(2) 0.658(24) 0.0019(4) 0 0
O1 O2- 0.0153(11) 0.0134(10) 0.124(13) 0 0 0
O2 O2- 0.0133(10) 0.0234(12) 0.103(13) 0 0 0
#End of TTdata_59159-ICSD